VARIABLES = "X", "Y"
ZONE T="Sample Data", I=11, J=1, F=POINT
# This is a sample Tecplot .dat file format
0.0 0.0
1.0 1.5
2.0 3.8
3.0 2.1
4.0 -0.5
5.0 -1.2
6.0 -0.8
7.0 1.1
8.0 2.9
9.0 3.1
10.0 1.5
